111
Energy = -1971.656490134
C    -0.1379704    1.2159854    2.5338261 
C    -0.3516665    2.7196819    2.7414568 
C     0.0751629    3.1650913    4.1611741 
C     0.2480484    3.6463941    1.6628216 
C    -1.1991060    0.2445425    2.5338261 
C    -2.6952421    0.5059732    2.7414568 
C    -2.9869541    1.0495511    4.1611741 
C    -3.3912758    1.3627058    1.6628216 
C    -0.6031179   -1.0648498    2.5338261 
C    -1.3140847   -2.4069733    2.7414568 
C    -1.9212020   -2.5164330    4.1611741 
C    -2.3439720   -2.8041957    1.6628216 
C     0.8263587   -0.9026559    2.5338261 
C     1.8830931   -1.9935644    2.7414568 
C     1.7995859   -2.6047923    4.1611741 
C     1.9426214   -3.0957940    1.6628216 
C     1.1138356    0.5069778    2.5338261 
C     2.4779002    1.1748827    2.7414568 
C     3.0334073    0.9065829    4.1611741 
C     3.5445781    0.8908898    1.6628216 
H    -1.4414139    2.8762923    2.6865498 
H    -0.3323966    2.4812278    4.9298168 
H    -0.2994095    4.1875112    4.3707891 
H     1.1754391    3.1834066    4.2744589 
H    -0.0517489    4.6971405    1.8547325 
H     1.3537880    3.6090868    1.6397813 
H    -0.1136784    3.3575280    0.6565676 
H    -3.1809379   -0.4820428    2.6865498 
H    -2.4625041    0.4506136    4.9298168 
H    -4.0750824    1.0092567    4.3707891 
H    -2.6643689    2.1016358    4.2744589 
H    -4.4832373    1.4022801    1.8547325 
H    -3.0141020    2.4027981    1.6397813 
H    -3.2283274    0.9294186    0.6565676 
H    -0.5245139   -3.1742112    2.6865498 
H    -1.1895146   -2.2027333    4.9298168 
H    -2.2191299   -3.5637562    4.3707891 
H    -2.8221097   -1.8845242    4.2744589 
H    -2.7190442   -3.8304837    1.8547325 
H    -3.2166055   -2.1240759    1.6397813 
H    -1.8815377   -2.7831157    0.6565676 
H     2.8567705   -1.4797275    2.6865498 
H     1.7273436   -1.8119776    4.9298168 
H     2.7035847   -3.2117792    4.3707891 
H     0.9202092   -3.2663358    4.2744589 
H     2.8027756   -3.7696492    1.8547325 
H     2.0654732   -2.6494787    0.6565676 
H     1.0261305   -3.7155492    1.6397813 
H     2.2900952    2.2596893    2.6865498 
H     3.8900372    1.5787675    4.3707891 
H     2.2570716    1.0828695    4.9298168 
H     3.3908303   -0.1341823    4.2744589 
H     4.4512548    1.5007124    1.8547325 
H     3.1580703    1.1456478    0.6565676 
H     3.8507890   -0.1722598    1.6397813 
Th   -0.0000000   -0.0000000    0.0000000 
C     0.1379704   -1.2159854   -2.5338261 
C     0.3516665   -2.7196819   -2.7414568 
C    -0.0751629   -3.1650913   -4.1611741 
C    -0.2480484   -3.6463941   -1.6628216 
C     1.1991060   -0.2445425   -2.5338261 
C     2.6952421   -0.5059732   -2.7414568 
C     2.9869541   -1.0495511   -4.1611741 
C     3.3912758   -1.3627058   -1.6628216 
C     0.6031179    1.0648498   -2.5338261 
C     1.3140847    2.4069733   -2.7414568 
C     1.9212020    2.5164330   -4.1611741 
C     2.3439720    2.8041957   -1.6628216 
C    -0.8263587    0.9026559   -2.5338261 
C    -1.8830931    1.9935644   -2.7414568 
C    -1.7995859    2.6047923   -4.1611741 
C    -1.9426214    3.0957940   -1.6628216 
C    -1.1138356   -0.5069778   -2.5338261 
C    -2.4779002   -1.1748827   -2.7414568 
C    -3.0334073   -0.9065829   -4.1611741 
C    -3.5445781   -0.8908898   -1.6628216 
H     1.4414139   -2.8762923   -2.6865498 
H     0.3323966   -2.4812278   -4.9298168 
H     0.2994095   -4.1875112   -4.3707891 
H    -1.1754391   -3.1834066   -4.2744589 
H     0.0517489   -4.6971405   -1.8547325 
H    -1.3537880   -3.6090868   -1.6397813 
H     0.1136784   -3.3575280   -0.6565676 
H     3.1809379    0.4820428   -2.6865498 
H     2.4625041   -0.4506136   -4.9298168 
H     4.0750824   -1.0092567   -4.3707891 
H     2.6643689   -2.1016358   -4.2744589 
H     4.4832373   -1.4022801   -1.8547325 
H     3.0141020   -2.4027981   -1.6397813 
H     3.2283274   -0.9294186   -0.6565676 
H     0.5245139    3.1742112   -2.6865498 
H     1.1895146    2.2027333   -4.9298168 
H     2.2191299    3.5637562   -4.3707891 
H     2.8221097    1.8845242   -4.2744589 
H     2.7190442    3.8304837   -1.8547325 
H     3.2166055    2.1240759   -1.6397813 
H     1.8815377    2.7831157   -0.6565676 
H    -2.8567705    1.4797275   -2.6865498 
H    -1.7273436    1.8119776   -4.9298168 
H    -2.7035847    3.2117792   -4.3707891 
H    -0.9202092    3.2663358   -4.2744589 
H    -2.8027756    3.7696492   -1.8547325 
H    -2.0654732    2.6494787   -0.6565676 
H    -1.0261305    3.7155492   -1.6397813 
H    -2.2900952   -2.2596893   -2.6865498 
H    -3.8900372   -1.5787675   -4.3707891 
H    -2.2570716   -1.0828695   -4.9298168 
H    -3.3908303    0.1341823   -4.2744589 
H    -4.4512548   -1.5007124   -1.8547325 
H    -3.1580703   -1.1456478   -0.6565676 
H    -3.8507890    0.1722598   -1.6397813 
